 argument  1 = eric.nw
                                         
                                         
 
 
             Northwest Computational Chemistry Package (NWChem) 5.1.1
             --------------------------------------------------------
 
 
                    Environmental Molecular Sciences Laboratory
                       Pacific Northwest National Laboratory
                                Richland, WA 99352
 
                                         
                                         
 
 
                  COPYRIGHT (C) 1994, 1995, 1996, 1997, 1998, 1999,
                2000, 2001, 2002, 2003, 2004, 2005, 2006, 2007, 2008,
                                     2009, 2010
                        Pacific Northwest National Laboratory,
                             Battelle Memorial Institute.
 
                            >>> All Rights Reserved <<<
 
 
                                    DISCLAIMER
                                    ----------

            This material was prepared as an account of work sponsored
            by an agency of the United States Government.  Neither the
            United States Government nor the United States Department
            of Energy, nor Battelle, nor any of their employees, MAKES
            ANY WARRANTY, EXPRESS OR IMPLIED, OR ASSUMES ANY LEGAL
            LIABILITY OR RESPONSIBILITY FOR THE ACCURACY, COMPLETENESS,
            OR USEFULNESS OF ANY INFORMATION, APPARATUS, PRODUCT,
            SOFTWARE, OR PROCESS DISCLOSED, OR REPRESENTS THAT ITS USE
            WOULD NOT INFRINGE PRIVATELY OWNED RIGHTS.


                                    LIMITED USE
                                    -----------

            This software (including any documentation) is being made
            available to you for your internal use only, solely for use
            in performance of work directly for the U.S. Federal
            Government or work under contracts with the U.S. Department
            of Energy or other U.S. Federal Government agencies.  This
            software is a version which has not yet been evaluated and
            cleared for commercialization.  Adherence to this notice
            may be necessary for the author, Battelle Memorial
            Institute, to successfully assert copyright in and
            commercialize this software. This software is not intended
            for duplication or distribution to third parties without
            the permission of the Manager of Software Products at
            Pacific Northwest National Laboratory, Richland,
            Washington, 99352.


                                  ACKNOWLEDGMENT
                                  --------------

            This software and its documentation were produced with
            Government support under Contract Number DE-AC05-76RL01830
            awarded by the United States Department of Energy.  The
            Government retains a paid-up non-exclusive, irrevocable
            worldwide license to reproduce, prepare derivative works,
            perform publicly and display publicly by or for the
            Government, including the right to distribute to other
            Government contractors.


           Job information
           ---------------

    hostname      = seattle-1
    program       = nwchem
    date          = Mon Apr 19 15:44:25 2010

    compiled      = Thu_Apr_15_15:46:54_2010
    source        = /home/bylaska/nwchem-releases/nwchem
    nwchem branch = Development
    input         = eric.nw
    prefix        = eric.
    data base     = ./eric.db
    status        = startup
    nproc         =        1
    time left     =     -1s



           Memory information
           ------------------

    heap      =   13107201 doubles =    100.0 Mbytes
    stack     =   13107201 doubles =    100.0 Mbytes
    global    =   26214400 doubles =    200.0 Mbytes (distinct from heap & stack)
    total     =   52428802 doubles =    400.0 Mbytes
    verify    = yes
    hardfail  = no 


           Directory information
           ---------------------
 
  0 permanent = .
  0 scratch   = .
 
 
 
 
                                NWChem Input Module
                                -------------------
 
 

 Scaling coordinates for geometry "geometry" by  1.889725989
 (inverse scale =  0.529177249)

 ORDER OF PRIMARY AXIS IS BEING SET TO 4
 D4H symmetry detected

          ------
          auto-z
          ------
 
 
                             Geometry "geometry" -> ""
                             -------------------------
 
 Output coordinates in angstroms (scale by  1.889725989 to convert to a.u.)
 
  No.       Tag          Charge          X              Y              Z
 ---- ---------------- ---------- -------------- -------------- --------------
    1 C                    6.0000     0.00000000     0.00000000    -0.50000000
    2 C                    6.0000     0.00000000     0.00000000     0.50000000
 
      Atomic Mass 
      ----------- 
 
      C                 12.000000
 

 Effective nuclear repulsion energy (a.u.)      19.0503809640

            Nuclear Dipole moment (a.u.) 
            ----------------------------
        X                 Y               Z
 ---------------- ---------------- ----------------
     0.0000000000     0.0000000000     0.0000000000
 
      Symmetry information
      --------------------
 
 Group name             D4h       
 Group number             28
 Group order              16
 No. of unique centers     1
 
      Symmetry unique atoms
 
     1
 


                                Z-matrix (autoz)
                                -------- 

 Units are Angstrom for bonds and degrees for angles
 
      Type          Name      I     J     K     L     M      Value
      ----------- --------  ----- ----- ----- ----- ----- ----------
    1 Stretch                  1     2                       1.00000
 
 
            XYZ format geometry
            -------------------
     2
 geometry
 C                     0.00000000     0.00000000    -0.50000000
 C                     0.00000000     0.00000000     0.50000000
 
 ==============================================================================
                                internuclear distances
 ------------------------------------------------------------------------------
       center one      |      center two      | atomic units |  angstroms
 ------------------------------------------------------------------------------
    2 C                |   1 C                |     1.88973  |     1.00000
 ------------------------------------------------------------------------------
                         number of included internuclear distances:          1
 ==============================================================================



 >>>> PSPW Parallel Module - noit_energy <<<<
          ****************************************************
          *                                                  *
          *               NWPW PSPW Calculation              *
          *                                                  *
          *  [ (Grassman/Stiefel manifold implementation) ]  *
          *                                                  *
          *      [ NorthWest Chemistry implementation ]      *
          *                                                  *
          *            version #5.10   06/12/02              *
          *                                                  *
          *    This code was developed by Eric J. Bylaska,   *
          *    and was based upon algorithms and code        *
          *    developed by the group of Prof. John H. Weare *
          *                                                  *
          ****************************************************
     >>>  JOB STARTED       AT Mon Apr 19 15:44:25 2010  <<<
          ================ input data ========================

 input psi filename:./eric.movecs

 number of processors used:         1
 processor grid           :   1 x   1
 parallel mapping         :   hilbert
 parallel mapping         :  balanced

 options:
      boundary conditions  = periodic    (version3)
      electron spin        = restricted
      exchange-correlation = LDA (Vosko et al) parameterization

 elements involved in the cluster:
      1: C     core charge:  4.0000  lmax=  2
             comment    : Parameterized (J.Phys.Chem., vol 100, page 6966) Hamman psp
             pseudpotential type            :   0
             highest angular component      :   2
             local potential used           :   2
             number of non-local projections:   4
             cutoff =   0.800   0.850   0.850
 

 total charge:   0.000

 atomic composition:
     C   :  2

 number of electrons: spin up=     4 (   4 per task)  down=     4 (   4 per task) (fourier space)
 number of orbitals : spin up=     4 (   4 per task)  down=     4 (   4 per task) (fourier space)

 supercell:
      cell_name:  cell_default                  
      lattice:    a1=<  30.000   0.000   0.000 >
                  a2=<   0.000  30.000   0.000 >
                  a3=<   0.000   0.000  30.000 >
      reciprocal: b1=<   0.209   0.000   0.000 >
                  b2=<   0.000   0.209   0.000 >
                  b3=<   0.000   0.000   0.209 >
      lattice:    a=      30.000 b=     30.000 c=      30.000
                  alpha=  90.000 beta=  90.000 gamma=  90.000
                  omega=     27000.0

      density cutoff=  0.088  fft=  4x  4x  4(       14 waves       14 per task)
      wavefnc cutoff=  0.088  fft=  4x  4x  4(       14 waves       14 per task)
      ewald summation: cut radius=    9.55  and  1
                        madelung= 1.76011888

 technical parameters:
      time step=      5.80     ficticious mass=  400000.0
      tolerance=.100E-06 (energy)   0.100E-06 (density)
      maximum iterations =    1000 (   10 inner  100 outer )



 tmpz=                     1 (0.000000000000000E+000,0.000000000000000E+000)
 tmpz=                     2 (0.000000000000000E+000,0.000000000000000E+000)
 tmpz=                     3 (0.000000000000000E+000,0.000000000000000E+000)
 tmpz=                     4 (0.000000000000000E+000,0.000000000000000E+000)
 tmpz=                     5 (1.00000000000000,0.000000000000000E+000)
 tmpz=                     6 (1.00000000000000,0.000000000000000E+000)
 tmpz=                     7 (1.00000000000000,0.000000000000000E+000)
 tmpz=                     8 (-1.836970198721030E-016,-1.00000000000000)
 tmpz=                     9 (1.976262583364986E-323,4.940656458412465E-324)
 tmpz=                    10 (1.976262583364986E-323,0.000000000000000E+000)

 A1=                     1 (3.300549355413945E-010,0.000000000000000E+000)
 A1=                     2 (1.823029339616164E-009,2.218914460672889E-012)
 A1=                     3 (0.000000000000000E+000,0.000000000000000E+000)
 A1=                     4 (1.823029339616164E-009,-2.218914460672889E-012)
 A1=                     5 (-1.438334205921637E-008,0.338996990168778)
 A1=                     6 (3.270057586619918E-007,-0.219120713637809)
 A1=                     7 (0.000000000000000E+000,0.000000000000000E+000)
 A1=                     8 (-3.087347251665938E-007,-0.219120713631727)
 A1=                     9 (1.668933926276043E-008,-0.101637901733915)
 A1=                    10 (1.898124380853266E-007,6.585922121519015E-002)
 A1=                    11 (0.000000000000000E+000,0.000000000000000E+000)
 A1=                    12 (-2.104323835412941E-007,6.585922110816092E-002)
 A1=                    13 (7.627349216778060E-009,-0.181987992141815)
 A1=                    14 (-6.470321517936501E-007,0.117633311964062)
 A1=                    15 (0.000000000000000E+000,0.000000000000000E+000)
 A1=                    16 (6.331624576779778E-007,0.117633311988315)
 A1=                    17 (0.000000000000000E+000,0.000000000000000E+000)
 A1=                    18 (0.000000000000000E+000,0.000000000000000E+000)
 A1=                    19 (0.000000000000000E+000,0.000000000000000E+000)
 A1=                    20 (0.000000000000000E+000,0.000000000000000E+000)
 A1=                    21 (7.627349216778060E-009,0.181987992141815)
 A1=                    22 (6.331624576779778E-007,-0.117633311988315)
 A1=                    23 (0.000000000000000E+000,0.000000000000000E+000)
 A1=                    24 (-6.470321517936501E-007,-0.117633311964062)
 A1=                    25 (-5.632990300791357E-009,-0.337253412824176)
 A1=                    26 (-5.614295873325880E-007,0.218533113412696)
 A1=                    27 (0.000000000000000E+000,0.000000000000000E+000)
 A1=                    28 (5.698405214547682E-007,0.218533113504673)
 A1=                    29 (0.000000000000000E+000,0.000000000000000E+000)
 A1=                    30 (0.000000000000000E+000,0.000000000000000E+000)
 A1=                    31 (0.000000000000000E+000,0.000000000000000E+000)
 A1=                    32 (0.000000000000000E+000,0.000000000000000E+000)
 A1=                    33 (0.000000000000000E+000,0.000000000000000E+000)
 A1=                    34 (0.000000000000000E+000,0.000000000000000E+000)
 A1=                    35 (0.000000000000000E+000,0.000000000000000E+000)
 A1=                    36 (0.000000000000000E+000,0.000000000000000E+000)
 A1=                    37 (0.000000000000000E+000,0.000000000000000E+000)
 A1=                    38 (0.000000000000000E+000,0.000000000000000E+000)
 A1=                    39 (0.000000000000000E+000,0.000000000000000E+000)
 A1=                    40 (0.000000000000000E+000,0.000000000000000E+000)
 A1=                    41 (0.000000000000000E+000,0.000000000000000E+000)
 A1=                    42 (0.000000000000000E+000,0.000000000000000E+000)
 A1=                    43 (0.000000000000000E+000,0.000000000000000E+000)
 A1=                    44 (0.000000000000000E+000,0.000000000000000E+000)
 A1=                    45 (0.000000000000000E+000,0.000000000000000E+000)
 A1=                    46 (0.000000000000000E+000,0.000000000000000E+000)
 A1=                    47 (0.000000000000000E+000,0.000000000000000E+000)
 A1=                    48 (0.000000000000000E+000,0.000000000000000E+000)

 B1=                     1 (3.976113614773723E-009,0.000000000000000E+000)
 B1=                     2 (3.256171066200488E-010,0.000000000000000E+000)
 B1=                     3 (-3.316003743690934E-009,0.000000000000000E+000)
 B1=                     4 (3.344927644627403E-010,0.000000000000000E+000)
 B1=                     5 (3.887691436181597E-009,-9.924443710075781E-002)
 B1=                     6 (-1.437725981339827E-008,0.338997625909261)
 B1=                     7 (-3.265437555461435E-008,0.777238417438313)
 B1=                     8 (-1.438942430503448E-008,0.338996354428294)
 B1=                     9 (-3.930606193207008E-009,3.008054058943652E-002)
 B1=                    10 (1.658231003006164E-008,-0.101637501489093)
 B1=                    11 (3.730928471872787E-008,-0.233356344057266)
 B1=                    12 (1.679636849545922E-008,-0.101638301978736)
 B1=                    13 (-6.242344898894301E-009,5.327863181056161E-002)
 B1=                    14 (7.651601913850906E-009,-0.181989272336425)
 B1=                    15 (2.149704333245042E-008,-0.417254616094192)
 B1=                    16 (7.603096519705214E-009,-0.181986711947206)
 B1=                    17 (0.000000000000000E+000,0.000000000000000E+000)
 B1=                    18 (0.000000000000000E+000,0.000000000000000E+000)
 B1=                    19 (0.000000000000000E+000,0.000000000000000E+000)
 B1=                    20 (0.000000000000000E+000,0.000000000000000E+000)
 B1=                    21 (-6.242344898894301E-009,-5.327863181056161E-002)
 B1=                    22 (7.651601913850906E-009,0.181989272336425)
 B1=                    23 (2.149704333245042E-008,0.417254616094192)
 B1=                    24 (7.603096519705214E-009,0.181986711947206)
 B1=                    25 (2.777943821388864E-009,9.981281409319342E-002)
 B1=                    26 (-5.541014068605315E-009,-0.337254544094284)
 B1=                    27 (-1.404392442297158E-008,-0.774319639741545)
 B1=                    28 (-5.724966532977399E-009,-0.337252281554067)
 B1=                    29 (0.000000000000000E+000,0.000000000000000E+000)
 B1=                    30 (0.000000000000000E+000,0.000000000000000E+000)
 B1=                    31 (0.000000000000000E+000,0.000000000000000E+000)
 B1=                    32 (0.000000000000000E+000,0.000000000000000E+000)
 B1=                    33 (0.000000000000000E+000,0.000000000000000E+000)
 B1=                    34 (0.000000000000000E+000,0.000000000000000E+000)
 B1=                    35 (0.000000000000000E+000,0.000000000000000E+000)
 B1=                    36 (0.000000000000000E+000,0.000000000000000E+000)
 B1=                    37 (0.000000000000000E+000,0.000000000000000E+000)
 B1=                    38 (0.000000000000000E+000,0.000000000000000E+000)
 B1=                    39 (0.000000000000000E+000,0.000000000000000E+000)
 B1=                    40 (0.000000000000000E+000,0.000000000000000E+000)
 B1=                    41 (0.000000000000000E+000,0.000000000000000E+000)
 B1=                    42 (0.000000000000000E+000,0.000000000000000E+000)
 B1=                    43 (0.000000000000000E+000,0.000000000000000E+000)
 B1=                    44 (0.000000000000000E+000,0.000000000000000E+000)
 B1=                    45 (0.000000000000000E+000,0.000000000000000E+000)
 B1=                    46 (0.000000000000000E+000,0.000000000000000E+000)
 B1=                    47 (0.000000000000000E+000,0.000000000000000E+000)
 B1=                    48 (0.000000000000000E+000,0.000000000000000E+000)
 tmpz=                     1 (2.777943821388864E-009,9.981281409319342E-002)
 tmpz=                     2 (-5.541014068605315E-009,-0.337254544094284)
 tmpz=                     3 (-1.404392442297158E-008,-0.774319639741545)
 tmpz=                     4 (-5.724966532977399E-009,-0.337252281554067)
 tmpz=                     5 (1.00000000000000,0.000000000000000E+000)
 tmpz=                     6 (1.00000000000000,0.000000000000000E+000)
 tmpz=                     7 (1.00000000000000,0.000000000000000E+000)
 tmpz=                     8 (-1.836970198721030E-016,-1.00000000000000)
 tmpz=                     9 (1.976262583364986E-323,4.940656458412465E-324)
 tmpz=                    10 (1.976262583364986E-323,0.000000000000000E+000)
 A1=                     1 (5.017302010643616E-010,0.000000000000000E+000)
 A1=                     2 (5.396560892512286E-009,-4.611219578378004E-011)
 A1=                     3 (0.000000000000000E+000,0.000000000000000E+000)
 A1=                     4 (5.396560892512286E-009,4.611219578378004E-011)
 A1=                     5 (-6.687926202333167E-009,0.181987992108240)
 A1=                     6 (1.795406039285945E-007,-0.117633311993316)
 A1=                     7 (0.000000000000000E+000,0.000000000000000E+000)
 A1=                     8 (-1.761127920578727E-007,-0.117633312053191)
 A1=                     9 (-3.163603933658866E-008,-0.337253412862318)
 A1=                    10 (-1.203797951540816E-007,0.218533113441544)
 A1=                    11 (0.000000000000000E+000,0.000000000000000E+000)
 A1=                    12 (1.569046719171162E-007,0.218533113370479)
 A1=                    13 (-5.737488100774142E-009,0.338996990145212)
 A1=                    14 (6.450759164796052E-008,-0.219120713631690)
 A1=                    15 (0.000000000000000E+000,0.000000000000000E+000)
 A1=                    16 (-6.065358252874370E-008,-0.219120713696734)
 A1=                    17 (0.000000000000000E+000,0.000000000000000E+000)
 A1=                    18 (0.000000000000000E+000,0.000000000000000E+000)
 A1=                    19 (0.000000000000000E+000,0.000000000000000E+000)
 A1=                    20 (0.000000000000000E+000,0.000000000000000E+000)
 A1=                    21 (-5.737488100774142E-009,-0.338996990145212)
 A1=                    22 (-6.065358252874370E-008,0.219120713696734)
 A1=                    23 (0.000000000000000E+000,0.000000000000000E+000)
 A1=                    24 (6.450759164796052E-008,0.219120713631690)
 A1=                    25 (4.891839803177730E-008,0.101637901725128)
 A1=                    26 (-1.049563241956586E-007,-6.585922123906875E-002)
 A1=                    27 (0.000000000000000E+000,0.000000000000000E+000)
 A1=                    28 (4.990537306375406E-008,-6.585922111435270E-002)
 A1=                    29 (0.000000000000000E+000,0.000000000000000E+000)
 A1=                    30 (0.000000000000000E+000,0.000000000000000E+000)
 A1=                    31 (0.000000000000000E+000,0.000000000000000E+000)
 A1=                    32 (0.000000000000000E+000,0.000000000000000E+000)
 A1=                    33 (0.000000000000000E+000,0.000000000000000E+000)
 A1=                    34 (0.000000000000000E+000,0.000000000000000E+000)
 A1=                    35 (0.000000000000000E+000,0.000000000000000E+000)
 A1=                    36 (0.000000000000000E+000,0.000000000000000E+000)
 A1=                    37 (0.000000000000000E+000,0.000000000000000E+000)
 A1=                    38 (0.000000000000000E+000,0.000000000000000E+000)
 A1=                    39 (0.000000000000000E+000,0.000000000000000E+000)
 A1=                    40 (0.000000000000000E+000,0.000000000000000E+000)
 A1=                    41 (0.000000000000000E+000,0.000000000000000E+000)
 A1=                    42 (0.000000000000000E+000,0.000000000000000E+000)
 A1=                    43 (0.000000000000000E+000,0.000000000000000E+000)
 A1=                    44 (0.000000000000000E+000,0.000000000000000E+000)
 A1=                    45 (0.000000000000000E+000,0.000000000000000E+000)
 A1=                    46 (0.000000000000000E+000,0.000000000000000E+000)
 A1=                    47 (0.000000000000000E+000,0.000000000000000E+000)
 A1=                    48 (0.000000000000000E+000,0.000000000000000E+000)
 B1=                     1 (1.129485198608893E-008,0.000000000000000E+000)
 B1=                     2 (5.939545926319216E-010,0.000000000000000E+000)
 B1=                     3 (-1.029139158396021E-008,0.000000000000000E+000)
 B1=                     4 (4.095058094968015E-010,0.000000000000000E+000)
 B1=                     5 (-3.260114331611356E-009,-5.327863193826743E-002)
 B1=                     6 (-6.747801154551653E-009,0.181988347761636)
 B1=                     7 (-1.011573807305498E-008,0.417254616154747)
 B1=                     8 (-6.628051250114681E-009,0.181987636454844)
 B1=                     9 (4.888837426445926E-009,9.981281394970515E-002)
 B1=                    10 (-3.170710487892837E-008,-0.337253690146785)
 B1=                    11 (-6.816091609962325E-008,-0.774319639674340)
 B1=                    12 (-3.156497379424895E-008,-0.337253135577850)
 B1=                    13 (-1.883478981557317E-009,-9.924443718321130E-002)
 B1=                    14 (-5.802532348539798E-009,0.338997115306387)
 B1=                    15 (-9.591497219990968E-009,0.777238417473636)
 B1=                    16 (-5.672443853008487E-009,0.338996864984038)
 B1=                    17 (0.000000000000000E+000,0.000000000000000E+000)
 B1=                    18 (0.000000000000000E+000,0.000000000000000E+000)
 B1=                    19 (0.000000000000000E+000,0.000000000000000E+000)
 B1=                    20 (0.000000000000000E+000,0.000000000000000E+000)
 B1=                    21 (-1.883478981557317E-009,9.924443718321130E-002)
 B1=                    22 (-5.802532348539798E-009,-0.338997115306387)
 B1=                    23 (-9.591497219990968E-009,-0.777238417473636)
 B1=                    24 (-5.672443853008487E-009,-0.338996864984038)
 B1=                    25 (-6.132553100127221E-009,-3.008054062829378E-002)
 B1=                    26 (4.904311407482573E-008,0.101637746863430)
 B1=                    27 (1.039693491636818E-007,0.233356344078549)
 B1=                    28 (4.879368198872888E-008,0.101638056586825)
 B1=                    29 (0.000000000000000E+000,0.000000000000000E+000)
 B1=                    30 (0.000000000000000E+000,0.000000000000000E+000)
 B1=                    31 (0.000000000000000E+000,0.000000000000000E+000)
 B1=                    32 (0.000000000000000E+000,0.000000000000000E+000)
 B1=                    33 (0.000000000000000E+000,0.000000000000000E+000)
 B1=                    34 (0.000000000000000E+000,0.000000000000000E+000)
 B1=                    35 (0.000000000000000E+000,0.000000000000000E+000)
 B1=                    36 (0.000000000000000E+000,0.000000000000000E+000)
 B1=                    37 (0.000000000000000E+000,0.000000000000000E+000)
 B1=                    38 (0.000000000000000E+000,0.000000000000000E+000)
 B1=                    39 (0.000000000000000E+000,0.000000000000000E+000)
 B1=                    40 (0.000000000000000E+000,0.000000000000000E+000)
 B1=                    41 (0.000000000000000E+000,0.000000000000000E+000)
 B1=                    42 (0.000000000000000E+000,0.000000000000000E+000)
 B1=                    43 (0.000000000000000E+000,0.000000000000000E+000)
 B1=                    44 (0.000000000000000E+000,0.000000000000000E+000)
 B1=                    45 (0.000000000000000E+000,0.000000000000000E+000)
 B1=                    46 (0.000000000000000E+000,0.000000000000000E+000)
 B1=                    47 (0.000000000000000E+000,0.000000000000000E+000)
 B1=                    48 (0.000000000000000E+000,0.000000000000000E+000)
 tmpz=                     1 (-6.132553100127221E-009,-3.008054062829378E-002)
 tmpz=                     2 (4.904311407482573E-008,0.101637746863430)
 tmpz=                     3 (1.039693491636818E-007,0.233356344078549)
 tmpz=                     4 (4.879368198872888E-008,0.101638056586825)
 tmpz=                     5 (1.00000000000000,0.000000000000000E+000)
 tmpz=                     6 (1.00000000000000,0.000000000000000E+000)
 tmpz=                     7 (1.00000000000000,0.000000000000000E+000)
 tmpz=                     8 (-1.836970198721030E-016,-1.00000000000000)
 tmpz=                     9 (1.976262583364986E-323,4.940656458412465E-324)
 tmpz=                    10 (1.976262583364986E-323,0.000000000000000E+000)
 A1=                     1 (2.733475177828444E-009,0.000000000000000E+000)
 A1=                     2 (1.443540195342910E-007,0.384304289961374)
 A1=                     3 (0.000000000000000E+000,0.000000000000000E+000)
 A1=                     4 (1.443540195342910E-007,-0.384304289961374)
 A1=                     5 (-3.843068967594889E-008,1.573479174039715E-011)
 A1=                     6 (-1.210321325423704E-007,-0.248925026515111)
 A1=                     7 (0.000000000000000E+000,0.000000000000000E+000)
 A1=                     8 (-4.234183699146737E-008,0.248925026504214)
 A1=                     9 (1.078068866116319E-008,-3.303786301763020E-011)
 A1=                    10 (1.073711517536811E-007,0.161597909551706)
 A1=                    11 (0.000000000000000E+000,0.000000000000000E+000)
 A1=                    12 (1.964908742520004E-008,-0.161597909485753)
 A1=                    13 (-3.777622178374089E-008,5.040494578084215E-011)
 A1=                    14 (-1.164150289752327E-007,-0.248925026523075)
 A1=                    15 (0.000000000000000E+000,0.000000000000000E+000)
 A1=                    16 (-4.698573526779275E-008,0.248925026492777)
 A1=                    17 (0.000000000000000E+000,0.000000000000000E+000)
 A1=                    18 (0.000000000000000E+000,0.000000000000000E+000)
 A1=                    19 (0.000000000000000E+000,0.000000000000000E+000)
 A1=                    20 (0.000000000000000E+000,0.000000000000000E+000)
 A1=                    21 (-3.777622178374089E-008,-5.040494578084215E-011)
 A1=                    22 (-4.698573526779275E-008,-0.248925026492777)
 A1=                    23 (0.000000000000000E+000,0.000000000000000E+000)
 A1=                    24 (-1.164150289752327E-007,0.248925026523075)
 A1=                    25 (8.127558415630920E-008,1.682863642681255E-011)
 A1=                    26 (3.195137161470985E-008,0.161597909476410)
 A1=                    27 (0.000000000000000E+000,0.000000000000000E+000)
 A1=                    28 (2.818027873691975E-008,-0.161597909512472)
 A1=                    29 (0.000000000000000E+000,0.000000000000000E+000)
 A1=                    30 (0.000000000000000E+000,0.000000000000000E+000)
 A1=                    31 (0.000000000000000E+000,0.000000000000000E+000)
 A1=                    32 (0.000000000000000E+000,0.000000000000000E+000)
 A1=                    33 (0.000000000000000E+000,0.000000000000000E+000)
 A1=                    34 (0.000000000000000E+000,0.000000000000000E+000)
 A1=                    35 (0.000000000000000E+000,0.000000000000000E+000)
 A1=                    36 (0.000000000000000E+000,0.000000000000000E+000)
 A1=                    37 (0.000000000000000E+000,0.000000000000000E+000)
 A1=                    38 (0.000000000000000E+000,0.000000000000000E+000)
 A1=                    39 (0.000000000000000E+000,0.000000000000000E+000)
 A1=                    40 (0.000000000000000E+000,0.000000000000000E+000)
 A1=                    41 (0.000000000000000E+000,0.000000000000000E+000)
 A1=                    42 (0.000000000000000E+000,0.000000000000000E+000)
 A1=                    43 (0.000000000000000E+000,0.000000000000000E+000)
 A1=                    44 (0.000000000000000E+000,0.000000000000000E+000)
 A1=                    45 (0.000000000000000E+000,0.000000000000000E+000)
 A1=                    46 (0.000000000000000E+000,0.000000000000000E+000)
 A1=                    47 (0.000000000000000E+000,0.000000000000000E+000)
 A1=                    48 (0.000000000000000E+000,0.000000000000000E+000)
 B1=                     1 (2.914415142464105E-007,0.000000000000000E+000)
 B1=                     2 (-0.768608577189274,0.000000000000000E+000)
 B1=                     3 (-2.859745638907536E-007,0.000000000000000E+000)
 B1=                     4 (0.768608582656224,0.000000000000000E+000)
 B1=                     5 (-2.018046592097866E-007,4.837425397764544E-012)
 B1=                     6 (0.497850014588635,-7.867456075916258E-008)
 B1=                     7 (1.249432798578889E-007,2.663215808302976E-011)
 B1=                     8 (-0.497850091450014,7.870603034264339E-008)
 B1=                     9 (1.378009278400443E-007,3.291468596004668E-011)
 B1=                    10 (-0.323195808256771,8.768902646546340E-008)
 B1=                    11 (-1.162395505177179E-007,-9.899041199530709E-011)
 B1=                    12 (0.323195829818148,-8.775510219149867E-008)
 B1=                    13 (-2.011769860267663E-007,2.010745903918271E-011)
 B1=                    14 (0.497850015239630,-6.937888876165906E-008)
 B1=                    15 (1.256245424592845E-007,8.070243252250158E-011)
 B1=                    16 (-0.497850090792073,6.947969865322075E-008)
 B1=                    17 (0.000000000000000E+000,0.000000000000000E+000)
 B1=                    18 (0.000000000000000E+000,0.000000000000000E+000)
 B1=                    19 (0.000000000000000E+000,0.000000000000000E+000)
 B1=                    20 (0.000000000000000E+000,0.000000000000000E+000)
 B1=                    21 (-2.011769860267663E-007,-2.010745903918271E-011)
 B1=                    22 (0.497850015239630,6.937888876165906E-008)
 B1=                    23 (1.256245424592845E-007,-8.070243252250158E-011)
 B1=                    24 (-0.497850090792073,-6.947969865322075E-008)
 B1=                    25 (1.414072345079388E-007,-1.923412745942287E-011)
 B1=                    26 (-0.323195737713298,3.787921514216913E-009)
 B1=                    27 (2.114393380467959E-008,5.289140031304796E-011)
 B1=                    28 (0.323195900264466,-3.754264241363288E-009)
 B1=                    29 (0.000000000000000E+000,0.000000000000000E+000)
 B1=                    30 (0.000000000000000E+000,0.000000000000000E+000)
 B1=                    31 (0.000000000000000E+000,0.000000000000000E+000)
 B1=                    32 (0.000000000000000E+000,0.000000000000000E+000)
 B1=                    33 (0.000000000000000E+000,0.000000000000000E+000)
 B1=                    34 (0.000000000000000E+000,0.000000000000000E+000)
 B1=                    35 (0.000000000000000E+000,0.000000000000000E+000)
 B1=                    36 (0.000000000000000E+000,0.000000000000000E+000)
 B1=                    37 (0.000000000000000E+000,0.000000000000000E+000)
 B1=                    38 (0.000000000000000E+000,0.000000000000000E+000)
 B1=                    39 (0.000000000000000E+000,0.000000000000000E+000)
 B1=                    40 (0.000000000000000E+000,0.000000000000000E+000)
 B1=                    41 (0.000000000000000E+000,0.000000000000000E+000)
 B1=                    42 (0.000000000000000E+000,0.000000000000000E+000)
 B1=                    43 (0.000000000000000E+000,0.000000000000000E+000)
 B1=                    44 (0.000000000000000E+000,0.000000000000000E+000)
 B1=                    45 (0.000000000000000E+000,0.000000000000000E+000)
 B1=                    46 (0.000000000000000E+000,0.000000000000000E+000)
 B1=                    47 (0.000000000000000E+000,0.000000000000000E+000)
 B1=                    48 (0.000000000000000E+000,0.000000000000000E+000)
 tmpz=                     1 (1.414072345079388E-007,-1.923412745942287E-011)
 tmpz=                     2 (-0.323195737713298,3.787921514216913E-009)
 tmpz=                     3 (2.114393380467959E-008,5.289140031304796E-011)
 tmpz=                     4 (0.323195900264466,-3.754264241363288E-009)
 tmpz=                     5 (1.00000000000000,0.000000000000000E+000)
 tmpz=                     6 (1.00000000000000,0.000000000000000E+000)
 tmpz=                     7 (1.00000000000000,0.000000000000000E+000)
 tmpz=                     8 (-1.836970198721030E-016,-1.00000000000000)
 tmpz=                     9 (1.976262583364986E-323,4.940656458412465E-324)
 tmpz=                    10 (1.976262583364986E-323,0.000000000000000E+000)
 A1=                     1 (-0.390653432484872,0.000000000000000E+000)
 A1=                     2 (0.258461227173330,-4.793944738530361E-008)
 A1=                     3 (0.000000000000000E+000,0.000000000000000E+000)
 A1=                     4 (0.258461227173330,4.793944738530361E-008)
 A1=                     5 (0.258653680529356,5.223837321175186E-009)
 A1=                     6 (-0.170155353670359,3.504771684940355E-008)
 A1=                     7 (0.000000000000000E+000,0.000000000000000E+000)
 A1=                     8 (-0.170155353673830,-4.370804108274846E-008)
 A1=                     9 (-0.170259889611622,-6.470876369780477E-009)
 A1=                    10 (0.111019200409079,-2.403044950288589E-008)
 A1=                    11 (0.000000000000000E+000,0.000000000000000E+000)
 A1=                    12 (0.111019200428081,3.466609822016932E-008)
 A1=                    13 (0.258653680525038,2.791483905700525E-009)
 A1=                    14 (-0.170155353666314,3.659818303444549E-008)
 A1=                    15 (0.000000000000000E+000,0.000000000000000E+000)
 A1=                    16 (-0.170155353676660,-4.191670251500840E-008)
 A1=                    17 (0.000000000000000E+000,0.000000000000000E+000)
 A1=                    18 (0.000000000000000E+000,0.000000000000000E+000)
 A1=                    19 (0.000000000000000E+000,0.000000000000000E+000)
 A1=                    20 (0.000000000000000E+000,0.000000000000000E+000)
 A1=                    21 (0.258653680525038,-2.791483905700525E-009)
 A1=                    22 (-0.170155353676660,4.191670251500840E-008)
 A1=                    23 (0.000000000000000E+000,0.000000000000000E+000)
 A1=                    24 (-0.170155353666314,-3.659818303444549E-008)
 A1=                    25 (-0.170259889595320,-2.195517079691370E-009)
 A1=                    26 (0.111019200418169,-3.156229173070272E-008)
 A1=                    27 (0.000000000000000E+000,0.000000000000000E+000)
 A1=                    28 (0.111019200404676,3.473842391439615E-008)
 A1=                    29 (0.000000000000000E+000,0.000000000000000E+000)
 A1=                    30 (0.000000000000000E+000,0.000000000000000E+000)
 A1=                    31 (0.000000000000000E+000,0.000000000000000E+000)
 A1=                    32 (0.000000000000000E+000,0.000000000000000E+000)
 A1=                    33 (0.000000000000000E+000,0.000000000000000E+000)
 A1=                    34 (0.000000000000000E+000,0.000000000000000E+000)
 A1=                    35 (0.000000000000000E+000,0.000000000000000E+000)
 A1=                    36 (0.000000000000000E+000,0.000000000000000E+000)
 A1=                    37 (0.000000000000000E+000,0.000000000000000E+000)
 A1=                    38 (0.000000000000000E+000,0.000000000000000E+000)
 A1=                    39 (0.000000000000000E+000,0.000000000000000E+000)
 A1=                    40 (0.000000000000000E+000,0.000000000000000E+000)
 A1=                    41 (0.000000000000000E+000,0.000000000000000E+000)
 A1=                    42 (0.000000000000000E+000,0.000000000000000E+000)
 A1=                    43 (0.000000000000000E+000,0.000000000000000E+000)
 A1=                    44 (0.000000000000000E+000,0.000000000000000E+000)
 A1=                    45 (0.000000000000000E+000,0.000000000000000E+000)
 A1=                    46 (0.000000000000000E+000,0.000000000000000E+000)
 A1=                    47 (0.000000000000000E+000,0.000000000000000E+000)
 A1=                    48 (0.000000000000000E+000,0.000000000000000E+000)
 B1=                     1 (0.126269021861787,0.000000000000000E+000)
 B1=                     2 (-0.390653336605978,0.000000000000000E+000)
 B1=                     3 (-0.907575886831532,0.000000000000000E+000)
 B1=                     4 (-0.390653528363767,0.000000000000000E+000)
 B1=                     5 (-8.165702681483250E-002,-3.436486912169723E-009)
 B1=                     6 (0.258653601773598,5.227308655506281E-009)
 B1=                     7 (0.598964387873545,1.388416155452009E-008)
 B1=                     8 (0.258653759285114,5.220365986844090E-009)
 B1=                     9 (5.177851122553773E-002,4.164772347502954E-009)
 B1=                    10 (-0.170259830915075,-6.489877392757727E-009)
 B1=                    11 (-0.392298290448782,-1.710652508706391E-008)
 B1=                    12 (-0.170259948308170,-6.451875346803228E-009)
 B1=                    13 (-8.165702681793507E-002,-2.527035574862385E-009)
 B1=                    14 (0.258653602010153,2.801830018555856E-009)
 B1=                    15 (0.598964387868011,8.110003386263436E-009)
 B1=                    16 (0.258653759039924,2.781137792845195E-009)
 B1=                    17 (0.000000000000000E+000,0.000000000000000E+000)
 B1=                    18 (0.000000000000000E+000,0.000000000000000E+000)
 B1=                    19 (0.000000000000000E+000,0.000000000000000E+000)
 B1=                    20 (0.000000000000000E+000,0.000000000000000E+000)
 B1=                    21 (-8.165702681793507E-002,2.527035574862385E-009)
 B1=                    22 (0.258653602010153,-2.801830018555856E-009)
 B1=                    23 (0.598964387868011,-8.110003386263436E-009)
 B1=                    24 (0.258653759039924,-2.781137792845195E-009)
 B1=                    25 (5.177851122752505E-002,9.806151040020619E-010)
 B1=                    26 (-0.170259823294604,-2.182024372739647E-009)
 B1=                    27 (-0.392298290418165,-5.371649263384801E-009)
 B1=                    28 (-0.170259955896035,-2.209009786643093E-009)
 B1=                    29 (0.000000000000000E+000,0.000000000000000E+000)
 B1=                    30 (0.000000000000000E+000,0.000000000000000E+000)
 B1=                    31 (0.000000000000000E+000,0.000000000000000E+000)
 B1=                    32 (0.000000000000000E+000,0.000000000000000E+000)
 B1=                    33 (0.000000000000000E+000,0.000000000000000E+000)
 B1=                    34 (0.000000000000000E+000,0.000000000000000E+000)
 B1=                    35 (0.000000000000000E+000,0.000000000000000E+000)
 B1=                    36 (0.000000000000000E+000,0.000000000000000E+000)
 B1=                    37 (0.000000000000000E+000,0.000000000000000E+000)
 B1=                    38 (0.000000000000000E+000,0.000000000000000E+000)
 B1=                    39 (0.000000000000000E+000,0.000000000000000E+000)
 B1=                    40 (0.000000000000000E+000,0.000000000000000E+000)
 B1=                    41 (0.000000000000000E+000,0.000000000000000E+000)
 B1=                    42 (0.000000000000000E+000,0.000000000000000E+000)
 B1=                    43 (0.000000000000000E+000,0.000000000000000E+000)
 B1=                    44 (0.000000000000000E+000,0.000000000000000E+000)
 B1=                    45 (0.000000000000000E+000,0.000000000000000E+000)
 B1=                    46 (0.000000000000000E+000,0.000000000000000E+000)
 B1=                    47 (0.000000000000000E+000,0.000000000000000E+000)
 B1=                    48 (0.000000000000000E+000,0.000000000000000E+000)


==  Summary Of Results  ==
 
 number of electrons: spin up=    4.00000  down=    4.00000 (real space)

 total     energy    :   0.2420586185E+01 (    0.12103E+01/ion)
 total orbital energy:  -0.2543466246E+01 (   -0.63587E+00/electron)
 hartree   energy    :   0.7017161357E+00 (    0.17543E+00/electron)
 exc-corr  energy    :  -0.7748973614E+00 (   -0.19372E+00/electron)
 ion-ion   energy    :   0.5434264020E+01 (    0.27171E+01/ion)

 kinetic (planewave) :   0.3127700002E+00 (    0.78193E-01/electron)
 V_local (planewave) :  -0.3276958422E+01 (   -0.81924E+00/electron)
 V_nl    (planewave) :   0.2369181229E-01 (    0.59230E-02/electron)
 V_coul  (planewave) :   0.1403432271E+01 (    0.35086E+00/electron)
 V_xc    (planewave) :  -0.1006401908E+01 (   -0.25160E+00/electron)
 Virial Coefficient  :  -0.9132065875E+01

 orbital energies:
    -0.2508485E+00 (  -6.826eV)
    -0.2508485E+00 (  -6.826eV)
    -0.2545032E+00 (  -6.925eV)
    -0.5155329E+00 ( -14.028eV)

 Total PSPW energy   :   0.2420586185E+01


== Timing ==

cputime in seconds
  prologue    :   0.130189E+00
  main loop   :   0.334096E-02
  epilogue    :   0.170898E-02
  total       :   0.135239E+00
  cputime/step:   0.334096E-02       (       1 evalulations,       0 linesearches)


Time spent doing                        total          step
  FFTs                       :   0.240801E-03  0.240801E-03
  dot products               :   0.257452E-04  0.257452E-04
  geodesic                   :   0.000000E+00  0.000000E+00
  ffm_dgemm                  :   0.572405E-05  0.572405E-05
  fmf_dgemm                  :   0.219345E-04  0.219345E-04
  m_diagonalize              :   0.810613E-04  0.810613E-04
    - m_tredq                :   0.000000E+00  0.000000E+00
    - m_getdiags             :   0.000000E+00  0.000000E+00
    - m_tqliq                :   0.000000E+00  0.000000E+00
    - m_eigsrt               :   0.000000E+00  0.000000E+00
  exchange correlation       :   0.290871E-04  0.290871E-04
  local pseudopotentials     :   0.679493E-04  0.679493E-04
  non-local pseudopotentials :   0.324248E-03  0.324248E-03
  hartree potentials         :   0.762949E-04  0.762949E-04
  ion-ion interaction        :   0.681877E-04  0.681877E-04
  structure factors          :   0.716056E-05  0.716056E-05
  phase factors              :   0.405312E-05  0.405312E-05
  masking and packing        :   0.488508E-03  0.488508E-03
  queue fft                  :   0.151515E-02  0.151515E-02
  queue fft (serial)         :   0.148533E-02  0.148533E-02
  queue fft (message passing):   0.174066E-04  0.174066E-04
  HFX potential              :   0.000000E+00  0.000000E+00
  qmmm LJ                    :   0.000000E+00  0.000000E+00
  qmmm residual Q            :   0.000000E+00  0.000000E+00
 
     >>>  JOB COMPLETED     AT Mon Apr 19 15:44:25 2010  <<<

 Task  times  cpu:        0.1s     wall:        0.1s
 
 
                                NWChem Input Module
                                -------------------
 
 
 Summary of allocated global arrays
-----------------------------------
  No active global arrays



                         GA Statistics for process    0
                         ------------------------------

       create   destroy   get      put      acc     scatter   gather  read&inc
calls:    0        0        0        0        0        0        0        0     
number of processes/call 0.00e+00 0.00e+00 0.00e+00 0.00e+00 0.00e+00
bytes total:             0.00e+00 0.00e+00 0.00e+00 0.00e+00 0.00e+00 0.00e+00
bytes remote:            0.00e+00 0.00e+00 0.00e+00 0.00e+00 0.00e+00 0.00e+00
Max memory consumed for GA by this process: 0 bytes
 



                                  ACKNOWLEDGEMENT
                                  ---------------

            Please use the following acknowledgement where appropriate 
            for results obtained with NWChem:

            High Performance Computational Chemistry Group, "NWChem, A
            Computational Chemistry Package for Parallel Computers, 
            Version 5.1.1" (2008), Pacific Northwest National Laboratory,
            Richland, Washington 99352-0999, USA.


                                     CITATION
                                     --------

          Please use the following citation when publishing results
          obtained with NWChem:

          E. J. Bylaska, W. A. de Jong, N. Govind, K. Kowalski, T. P. Straatsma,
          M. Valiev, H. J. J. Van Dam, D. Wang, E. Apra, T. L. Windus, J. Hammond,
          J. Autschbach, P. Nichols, S. Hirata, M. T. Hackler, Y. Zhao, P.-D. Fan,
          R. J. Harrison, M. Dupuis, D. M. A. Smith, J. Nieplocha, V. Tipparaju,
          M. Krishnan, A. Vazquez-Mayagoitia, L. Jensen, M. Swart, Q. Wu,
          T. Van Voorhis, A. A. Auer, M. Nooijen, L. D. Crosby, E. Brown, 
          G. Cisneros, G. I. Fann, H. Fruchtl, J. Garza, K. Hirao,
          R. Kendall, J. A. Nichols, K. Tsemekhman, K. Wolinski, J. Anchell, 
          D. Bernholdt, P. Borowski, T. Clark, D. Clerc, H. Dachsel, M. Deegan, 
          K. Dyall, D. Elwood, E. Glendening, M. Gutowski, A. Hess, J. Jaffe, 
          B. Johnson, J. Ju, R. Kobayashi, R. Kutteh, Z. Lin, R. Littlefield, 
          X. Long, B. Meng, T. Nakajima, S. Niu, L. Pollack, M. Rosing, 
          G. Sandrone, M. Stave, H. Taylor, G. Thomas, J. van Lenthe, 
          A. Wong, and Z. Zhang,
          "NWChem, A Computational Chemistry Package for Parallel Computers, 
          Version 5.1.1" (2008),
                      Pacific Northwest National Laboratory,
                      Richland, Washington 99352-0999, USA.



 Total times  cpu:        0.1s     wall:        0.2s
MA_summarize_allocated_blocks: starting scan ...
MA_summarize_allocated_blocks: scan completed: 0 heap blocks, 0 stack blocks
MA usage statistics:

	allocation statistics:
					      heap	     stack
					      ----	     -----
	current number of blocks	         0	         0
	maximum number of blocks	       229	         6
	current total bytes		         0	         0
	maximum total bytes		     92296	      3792
	maximum total K-bytes		        93	         4
	maximum total M-bytes		         1	         1
